   50185
 i =     5000, time =     5000.000, E =      -478.0359168378
  N         5.1117579936        6.9060955292      -13.7752253291
  H         5.4191247044        6.5594090969      -14.7008768637
  H         5.8745176062        7.5167184359      -13.3781155930
  H         4.2277203557        7.3943261862      -13.9504519957
  C         4.8518035966        5.7834967190      -12.8944050077
  H         4.3208749309        5.1918439258      -13.6173029354
  C         6.1626353520        5.0434107003      -12.5769803228
  H         6.9951171767        5.7493626936      -12.2630517396
  H         6.3429910344        4.5934964801      -13.5817539633
  C         6.0355904769        3.8294267953      -11.6139414205
  H         5.4490479096        3.0518557288      -12.1263095708
  H         5.5711186649        4.1626708282      -10.6572321362
  S         7.5459810577        3.0799170490      -11.3261756199
  C         7.1739956387        2.3912593702       -9.7137678607
  H         6.3517484881        1.7482861677       -9.8079700340
  H         7.0391440127        3.1886656584       -8.9445633946
  H         8.0197332690        1.7317354773       -9.4792524982
  C         4.0609746692        6.2642481797      -11.6349915256
  O         4.3238385048        7.3856153312      -11.1235384530
  N         3.1540610776        5.4860228722      -11.1004552292
  H         2.8159664476        4.6034093428      -11.5374624202
  C         2.6099630216        5.7101641704       -9.7391432529
  H         2.2200187985        6.6522420801       -9.6761397658
  C         1.4648812406        4.7155352657       -9.4537909918
  H         1.7912847034        3.7255575815       -9.7478975904
  C         0.9965157363        4.7413423225       -8.0567133094
  H         0.1276987543        4.1645958147       -7.8353528913
  H         1.7091669514        4.3689267100       -7.3376432584
  H         0.7090445122        5.7589188438       -7.7435339029
  C         0.3249781062        5.0390644695      -10.4914390179
  H         0.3369340593        6.1192087076      -10.8378587743
  H        -0.6138075292        5.1166960213       -9.9643865579
  C        -0.0174315276        4.1506616314      -11.7193495280
  H         0.8417630000        4.1863213652      -12.4344187675
  H        -0.4095940091        3.1939552173      -11.5175262726
  H        -0.7880791876        4.7309583087      -12.2309626083
  C         3.7741401136        5.6877549737       -8.6705465410
  O         4.5223729546        4.7753969252       -8.6757329312
  N         3.7962744527        6.6459597874       -7.7590141932
  H         2.9494486808        7.1490384573       -7.6743469732
  C         4.8558536613        6.9443900637       -6.7769831245
  H         5.4338317781        6.0871494008       -6.5979871883
  C         5.6775824828        8.1540116634       -7.3347771056
  H         6.3756557405        8.4854037116       -6.5427318508
  H         5.0969239494        9.0550143790       -7.6844774641
  C         6.5367772517        7.7904120913       -8.5420022790
  H         7.0165254325        8.7109120159       -8.9464902602
  H         5.8569453622        7.4699696752       -9.3397282749
  C         7.5189196729        6.6400793731       -8.2466191384
  H         7.0130229450        5.7121679979       -8.0405771742
  H         8.3264030872        6.9939868098       -7.5218439553
  N         8.3510976660        6.3668291203       -9.4125694369
  H         8.2147532922        6.9417656030      -10.1861361778
  C         9.2587466168        5.3164658847       -9.5552800980
  N         9.4976499064        4.4705385059       -8.4073437491
  H        10.0993785191        3.6070874766       -8.5475113511
  H         9.1399828230        4.5669566080       -7.4888284862
  N         9.9609162018        5.1431318361      -10.6976732107
  H        10.4115209356        4.2478827736      -11.0591732924
  H         9.8008454382        5.7956373597      -11.4873305325
  C         4.1170172848        7.4591859921       -5.5564859744
  O         3.0089913315        7.9412222633       -5.6165370391
  N         4.8408325905        7.3911203712       -4.4338877270
  H         5.7318534310        6.8857764026       -4.3951462855
  C         4.6031363736        8.1487011993       -3.2330477608
  H         5.2014685268        7.7470275159       -2.4272909171
  H         3.5161612991        8.1684059458       -2.9390665712
  C         5.1494007066        9.5515046744       -3.5306027636
  O         6.1060092523        9.8070099694       -4.3089323414
  N         4.7154237120       10.4241120299       -2.5883006025
  H         4.0033041065       10.0882126009       -1.9704615088
  C         5.3434434595       11.7472203262       -2.3448160030
  H         6.2470890691       11.8364637456       -2.9586081472
  C         4.3772385087       12.9102407164       -2.7037548477
  H         3.4289266949       12.5583257258       -2.4427245692
  C         4.7117173477       14.2304686823       -1.9133779081
  H         5.7381209312       14.5605045427       -2.0809348667
  H         3.9607550363       15.0292355000       -2.1808928320
  H         4.5404402626       14.0397045959       -0.8450032943
  C         4.4124276099       13.2451244541       -4.2110194068
  H         4.1398389501       12.2426845729       -4.6876859451
  H         5.4011563284       13.4043113116       -4.6090877495
  C         3.4445430091       14.3017365801       -4.6647896639
  H         2.4387616100       14.2185157484       -4.1911152321
  H         3.7578359058       15.3329211908       -4.5078341472
  H         3.2910790033       14.1878949439       -5.7005008282
  C         5.6974508165       11.5672704392       -0.8709873520
  O         5.0391624462       10.7971396765       -0.1135383969
  N         6.7700806506       12.2556050852       -0.4563754506
  H         6.9581878176       13.1212477880       -0.9534504261
  C         7.2196842800       12.4015963206        0.9107817663
  H         6.4319532910       11.9348107111        1.5039579941
  C         8.4785439607       11.6145220864        1.1569827368
  H         8.9934819564       11.9413735293        2.0447739969
  H         9.2338642738       11.8481277975        0.3903588979
  C         8.2705617837       10.0713941885        1.2326979206
  H         9.1537193211        9.4731082468        1.1825013927
  H         7.6194247734        9.7746214248        0.4102370115
  C         7.5911449453        9.6434063358        2.5839827247
  H         8.0046760181        8.6273680599        2.7140516846
  H         6.4934700250        9.5504375860        2.3739996523
  N         7.6737452072       10.4956547780        3.8137302551
  H         6.8047310939       10.9758883180        4.0088285769
  C         8.7434009276       10.7239072211        4.6904485222
  N         9.8986691949        9.9909451530        4.4510494773
  H        10.8453908696       10.0968900299        4.9601890570
  H         9.9301206887        9.1578504515        3.8388585845
  N         8.7240540141       11.7386193357        5.6234216411
  H         9.5545900513       12.0228123433        6.0468129974
  H         7.8549371770       12.2725276446        5.7677044968
  C         7.3726950578       13.9200779816        1.2918109861
  O         7.7986402741       14.6394799637        0.4073641375
  N         6.9971291620       14.2739279420        2.5322794895
  H         6.7512394700       13.6246543795        3.2638234291
  C         7.2570008949       15.6044885860        3.1358683035
  H         6.5334930251       16.3897133159        2.7929324760
  H         8.2497219975       15.8459330633        2.8069748530
  C         7.1984605273       15.3962603489        4.6889509571
  O         6.8750735275       14.2762103858        5.1367773496
  N         7.6842765585       16.3374032082        5.4845575815
  H         8.0815925084       17.2070175923        5.1267356520
  C         7.6002415406       16.3513345772        6.9653918020
  H         6.6670818919       15.8285353623        7.2544386592
  C         8.6909067594       15.5920824458        7.7238394582
  H         9.6204907552       16.1332115198        8.0035711673
  H         8.2556737613       15.2496052230        8.7208689589
  H         8.8653773880       14.7312655099        7.0956007893
  C         7.5362979912       17.8131987216        7.4162415867
  O         7.8971608092       18.7121010713        6.6596808987
  N         6.9694100035       18.0363480066        8.6282795528
  H         6.6796853534       17.2849969086        9.2898393641
  C         7.1416367496       19.3197197822        9.2584118017
  H         8.1749203008       19.6040169773        9.0200473013
  C         6.1651305896       20.2860483199        8.6421496054
  H         6.2499875307       20.1121735175        7.5906946530
  C         4.6408551935       20.3051447398        8.9472669059
  H         4.3405157572       20.4163263701        9.9483766484
  H         4.1368063693       21.0013858577        8.2792571049
  H         4.2924612793       19.2823478088        8.5895227699
  O         6.6759637793       21.6436751255        8.8308518794
  H         7.6036551524       21.6907392744        8.4436501711
  C         6.9497915311       19.0808912139       10.8425411917
  O         6.7181230711       18.0087051505       11.2780128073
  N         7.3225858441       20.0875715965       11.7056757099
  H         7.4512005417       21.0409066263       11.3572267357
  C         7.1566424600       20.1163274939       13.1562038280
  H         6.7887121099       19.1325742174       13.4904850888
  C         8.6363167584       20.2917471052       13.7306694081
  H         8.3918214381       20.4302596991       14.7730287143
  C         9.4995191992       19.0407837492       13.4465792128
  H         9.7593314563       18.9092737091       12.3961655669
  H        10.4571677898       19.0058395840       14.0567826345
  H         8.9364063941       18.0948486924       13.7034306263
  O         9.2718825841       21.4730834957       13.2208650139
  H         8.7657458029       22.2686018021       13.3584694992
  C         6.1016955205       21.2003357896       13.5219809905
  O         5.9873433768       22.2128671937       12.8180091766
  N         5.1986803267       20.9069955431       14.4954409564
  H         5.3196145363       20.0263205227       15.0180368919
  C         4.4713898986       21.9270290383       15.1652454360
  H         4.3936161035       22.7953550395       14.5267156677
  C         2.9767140183       21.4191128416       15.3024167859
  H         2.4906655510       22.1957107706       15.8231297960
  C         2.1904805136       21.2886430934       14.0151561709
  H         1.1323865718       20.9831034294       14.2138976481
  H         2.1765341874       22.2359959489       13.4884060887
  H         2.6148465086       20.5073898342       13.4575211739
  C         2.8043072502       20.1204852831       16.1054389424
  H         1.7277334611       19.9447814455       16.2924163394
  H         3.1902129177       19.2169013027       15.6239099952
  H         3.2501560795       20.3384372892       17.0161445783
  C         5.2121666871       22.3415542320       16.4104351279
  O         6.1509149165       21.5916362214       16.7848528296
  N         4.9590480628       23.4881215327       16.9487439776
  H         4.2529559898       24.0790849880       16.5943706636
  C         5.6114574332       23.9587103023       18.1484480051
  H         6.5509899022       23.4920590595       18.0124302839
  C         5.8788025108       25.4766222497       18.1513171212
  H         4.7921225115       25.7909183716       18.2160825979
  H         6.3405573259       25.6897198343       17.1686236405
  C         6.6732241898       26.0496480198       19.3130302015
  H         6.2978383372       25.6754689221       20.2862611706
  H         6.4017980265       27.0943870505       19.4156169316
  C         8.1585644678       25.8822721598       19.2112240057
  O         8.6974407465       26.4997620751       18.2448202145
  O         8.8045242520       25.3425029817       20.1239419874
  C         4.9351769623       23.4265535004       19.3650723776
  O         5.6612358380       23.1045271631       20.2950435240
  N         3.5661808788       23.4351189807       19.4819716148
  H         3.0032284218       23.6263219014       18.6573825585
  C         2.7874737607       22.8968660362       20.5857436090
  H         3.5146668232       22.4131977349       21.1917789603
  C         2.2073455813       24.0296052014       21.4181252265
  H         1.5507135167       23.6310403677       22.2317139711
  H         1.5752338658       24.5854190705       20.7310195165
  C         3.2826885735       24.8937933478       22.1024805530
  H         3.4769051237       25.6834932782       21.3734665463
  H         4.0821691718       24.2987283141       22.4673693042
  C         2.6862172967       25.7525942225       23.2360897693
  H         3.3921606825       26.4104476923       23.5217251915
  H         2.4393815622       25.0665242734       24.1231325448
  N         1.5558274847       26.5118745167       22.8151419072
  H         0.7184610721       26.0738303865       23.0070488843
  C         1.4303101317       27.7511318283       22.3014950027
  N         2.5747714675       28.4816225864       22.1369395008
  H         3.5321383296       28.1505813056       22.3193449438
  H         2.5782011083       29.4604721624       21.8793769305
  N         0.2330827003       28.2814499264       22.1396890535
  H         0.0713372490       29.2112564515       21.7088831685
  H        -0.6303821278       27.7164038545       22.1265936383
  C         1.7501139268       21.9311874583       19.9798820378
  O         1.3022082652       22.2174083966       18.8220027426
  N         1.3129750629       20.8420444963       20.6432139456
  H         1.8369001810       20.5147543780       21.4086256433
  C         0.0829771939       20.0611920589       20.3650956904
  H         0.0588259093       19.8547287082       19.2821327573
  C        -0.0787841766       18.7434809989       21.0980956290
  H         0.0483861412       18.8364943647       22.1872397655
  H         0.6917558641       18.0207797153       20.8309399322
  C        -1.4598112671       18.1379964028       20.7395711913
  O        -1.7254728484       17.6770385236       19.6129227671
  O        -2.3167968188       18.0608426570       21.6723921895
  C        -1.0254224313       21.0852567765       20.7352591232
  O        -1.3074772392       21.3857307164       21.8751868292
  N        -1.5990134123       21.6437237511       19.6483794998
  H        -1.2709603199       21.3613214722       18.7125170365
  C        -2.6019101327       22.6063102608       19.6802027419
  H        -3.3427749559       22.3353637099       20.4573594495
  C        -2.0207620624       24.0138226000       20.0598644401
  H        -2.6761382385       24.8120292831       19.7048869067
  C        -1.6567149382       24.3122164181       21.5855115020
  H        -1.7552088293       25.3487233463       21.6260399391
  H        -2.3874639690       23.8103418981       22.1521773301
  H        -0.6382621731       24.0146907371       21.8513402696
  O        -0.7951928298       24.3176489076       19.3723879215
  H        -0.8950751730       24.0585454438       18.4468639383
  C        -3.3352298202       22.4100937421       18.3634365849
  O        -2.6969685152       22.4257332466       17.3075466493
  N        -4.6693444875       22.3483467030       18.4061962507
  H        -5.0526303986       22.5183859708       19.3689536207
  C        -5.5403096191       22.1575103724       17.2595699306
  H        -5.4382366988       21.1005327205       16.9733378165
  C        -6.9615255544       22.4145580844       17.6881379353
  H        -7.1365523962       23.3600479499       18.1680259807
  H        -7.1991076170       21.6124042452       18.4350026504
  C        -7.9455284811       22.1597271477       16.4944020083
  H        -8.5488499614       21.3133976225       16.7997508576
  H        -7.5445348210       21.7570015268       15.5805586911
  C        -8.9135159460       23.3466320059       16.2059547292
  O        -8.8922185823       24.4008269644       16.8967666398
  O        -9.7411166747       23.1683300744       15.3200376113
  C        -5.1768007591       23.1062873009       16.1261521399
  O        -5.1733875651       22.5440676712       15.0075642067
  N        -4.9856389593       24.4053084622       16.4136911818
  H        -5.0464566877       24.6956600856       17.3915545060
  C        -4.8971779131       25.4434036363       15.3893979910
  H        -5.7342677847       25.3866615126       14.7218197517
  C        -4.8997526440       26.7661730199       16.0802306963
  H        -4.1921224627       26.7552541156       16.9726440953
  H        -5.9614273967       26.9035493741       16.3354027449
  C        -4.6393923257       28.0026058773       15.1632617314
  H        -5.3735337787       28.1749813367       14.4085900794
  H        -3.6962120121       27.8285942269       14.5443115613
  C        -4.5248902945       29.2507249274       15.8746264405
  O        -3.5211760007       29.5082964218       16.6107914023
  O        -5.4289071865       30.0726173112       15.8621769259
  C        -3.6348801589       25.0934001759       14.6270911319
  O        -3.7193635539       25.1888619618       13.3734075927
  N        -2.5232756525       24.6982443030       15.2710593146
  H        -2.5831855277       24.4782644968       16.2412142711
  C        -1.2607883357       24.4497869096       14.6168393394
  H        -1.0732791765       25.1662919790       13.9396248399
  C        -0.1961202304       24.5893389956       15.7313540760
  H         0.0622303001       23.6220861147       16.2145296031
  H        -0.5481776084       25.2531575190       16.5094539517
  C         1.1455089294       25.0678333532       15.1114730742
  H         0.8788610734       25.8529963749       14.4326393631
  H         1.4272959180       24.2966834574       14.4066444705
  C         2.4177345741       25.2821845763       15.9347173204
  O         2.4497048524       25.2377470037       17.1966586907
  O         3.4462857535       25.5453045689       15.2446591057
  C        -1.2514289420       23.0503418840       13.9533151690
  O        -0.6711713348       23.1187599397       12.9098301581
  N        -1.8230333916       21.9386708156       14.4627509561
  H        -2.4587487492       22.0473972266       15.2875980195
  C        -1.9521596632       20.6604185528       13.7132865956
  H        -0.9036196079       20.2974154179       13.5705685952
  C        -2.8195608652       19.6774849954       14.4551159765
  H        -3.7105009739       20.1306616959       14.7846518580
  C        -3.1978247243       18.4051905693       13.5500507490
  H        -3.7710179370       18.6301863398       12.6675489518
  H        -2.3885273342       17.7282307391       13.2836525363
  H        -3.9349681213       17.8616569324       14.1478194108
  C        -2.1366009634       19.1112053214       15.7928933543
  H        -2.8295133555       18.5984586903       16.4650053164
  H        -1.5144416646       19.8832545204       16.3113804204
  C        -0.9738624128       18.1533764744       15.5440582005
  H        -0.4693293536       17.9953652443       16.4718232590
  H        -1.4736345114       17.2643339844       15.2197431096
  H        -0.2586429205       18.5991850704       14.8624517778
  C        -2.5679299697       21.1179094647       12.3569368284
  O        -2.0372539453       20.6593538585       11.3583653668
  N        -3.6935115628       21.8981556164       12.3614692254
  H        -4.0475315524       22.2255686750       13.2359329647
  C        -4.3984660299       22.1591305481       11.0823256294
  H        -4.5333257380       21.1818190561       10.7362382671
  C        -5.7076987262       22.9547220824       11.1771286610
  H        -6.0409341910       23.1522778845       10.1400917912
  H        -5.5946016148       23.9083559687       11.7513547268
  C        -6.8939276151       22.1413841278       11.8278098421
  H        -6.6101867567       21.5875228488       12.6850513063
  C        -8.1354122887       22.9221154971       12.2310885718
  H        -8.6576092238       23.3200997393       11.3253923619
  H        -8.9090585318       22.2678713508       12.7085877392
  H        -7.8613466047       23.6015952297       13.0495649125
  C        -7.3621969297       20.9383590835       10.9858694937
  H        -8.1340635937       20.3597338460       11.4106389903
  H        -7.7180813627       21.3253864468        9.9900653864
  H        -6.5691143985       20.2288519999       10.8063664955
  C        -3.4392573601       22.9132454451       10.2180720482
  O        -3.2941193401       22.4603640619        9.0522887060
  N        -2.7668621385       23.9644336876       10.7485598999
  H        -2.9565557509       24.0371252220       11.7127170760
  C        -1.9893842839       25.0162403482       10.1002598855
  H        -2.6735481101       25.4468919275        9.3099315565
  C        -1.6533158933       26.1628969738       11.1061143987
  H        -1.0144710549       25.6703836679       11.8193649894
  H        -2.5811969630       26.3607071352       11.6452726340
  C        -1.0126632294       27.4904520042       10.6446399081
  H        -1.6666613862       28.3001260654       10.4130042462
  H        -0.2683609941       27.2413740628        9.8342786376
  C        -0.2099962011       27.9868007946       11.8541461935
  O         1.0613434639       27.8335258880       11.8079041209
  N        -0.7882081725       28.6071052780       12.8686728744
  H        -0.3561342607       28.8408377455       13.7514912695
  H        -1.7043238387       28.9733515493       12.8505641982
  C        -0.7959685374       24.4210364170        9.3824422233
  O        -0.6816654852       24.6750856932        8.1652618130
  N         0.0223895934       23.6383444125       10.0569465547
  H        -0.1594011253       23.4097358464       11.0240608476
  C         1.3044191335       23.2111283580        9.4526126893
  H         1.6334163783       24.0882779658        9.0830873182
  C         2.4057441588       22.7865996907       10.4400085110
  H         3.2651111370       22.4042191628        9.8876048554
  H         2.0106100940       22.0225739762       11.0881893618
  C         2.9349444108       23.9207385886       11.3767402623
  H         3.4686191221       23.3721142477       12.2450573680
  H         2.0129065006       24.4514653001       11.7362280921
  C         3.8867591848       24.9782579587       10.8108138202
  H         3.4074225614       25.5616860240       10.0453882971
  H         4.7996186341       24.5167179177       10.5276051680
  C         4.3526067104       25.9222294287       11.8764206192
  H         4.8563798669       26.7707840467       11.4974781091
  H         4.8675929327       25.3289767985       12.6074015370
  N         3.3169511187       26.5637726285       12.6799210056
  H         3.7489460498       26.9474826208       13.5475350854
  H         2.7485161037       27.2961708161       12.1951378496
  H         2.6715456821       25.8846940803       13.1158538282
  C         1.1853498110       22.1837357885        8.3173572832
  O         1.8308640449       22.3133934735        7.3250308116
  N         0.2950083995       21.2199328406        8.5602452432
  H        -0.1917589171       21.1711632858        9.4602937015
  C        -0.2007171798       20.2717792854        7.5156855221
  H         0.6297623335       19.5586053011        7.3143577137
  C        -1.3614805646       19.4781826977        8.1795633165
  H        -2.1968274262       20.1836593651        8.3173351090
  C        -1.9673392284       18.2755669313        7.3846521055
  H        -2.6333285283       17.6590554632        8.0263216464
  H        -2.4525487015       18.6835850200        6.4869942367
  H        -1.1807313402       17.6688749250        7.1804745292
  O        -0.9389592393       19.0139719092        9.5206798336
  H        -1.4455158331       19.6003112810       10.1408973616
  C        -0.5523035435       21.0773906076        6.2646845287
  O        -0.0501812283       20.6867380538        5.1524633247
  N        -1.4273841009       22.1222718883        6.3789383835
  H        -1.7883984255       22.3976203092        7.2814117346
  C        -1.9394395394       22.8754948516        5.2551978276
  H        -2.4240873989       22.2557854170        4.5269481878
  C        -3.0651703395       23.8354388602        5.6915868782
  H        -2.6345634405       24.5575991881        6.4969555375
  H        -3.8016387656       23.2148464019        6.1852758137
  C        -3.8384387390       24.4245865080        4.5509554750
  H        -4.1942608873       23.5985112060        3.9469798763
  H        -3.1458435874       24.9693204248        3.9383468731
  C        -5.0769573868       25.1950159864        4.9499570060
  H        -4.9292032038       25.8535736686        5.8024586580
  H        -5.7993171801       24.5291759651        5.3995066636
  C        -5.7403455480       25.9906836313        3.8428910162
  H        -6.6493023237       26.4145347034        4.0886459486
  H        -6.0031035550       25.2976456308        3.0462420671
  N        -4.9967818466       27.1025437167        3.3604074551
  H        -4.0540078851       26.9123879189        3.0160227629
  H        -5.5258940977       27.6524426155        2.6642019880
  H        -4.8884363343       27.7040450494        4.1819533336
  C        -0.7431727610       23.5395365320        4.5886808360
  O        -0.7272410804       23.4869026365        3.3611312777
  N         0.1920856059       24.1911619025        5.2752581645
  H         0.1002564260       24.2678078358        6.2948414663
  C         1.1639426451       24.9603518902        4.6105775360
  H         0.7624069591       25.5308647723        3.8220378675
  C         1.9440595561       25.8009735869        5.6688242552
  H         2.9078194095       26.2914087127        5.3536973616
  H         2.1283912208       25.0815238609        6.4355783091
  C         1.1890253855       26.9861972448        6.2264173321
  H         0.0888590490       26.7836952995        6.3593918999
  H         1.1075578459       27.8391047362        5.5545041482
  C         1.7727322588       27.4739572435        7.5357182087
  O         2.8752309512       27.1874052292        7.9767583004
  N         1.0722820186       28.4060410705        8.1327037205
  H         0.1716442023       28.5922121948        7.7508131557
  H         1.3394674796       28.9564494638        8.9299447026
  C         2.1456790242       23.9510818497        3.8668849209
  O         2.7082869691       24.2959790552        2.8256510939
  N         2.4132746490       22.7926409923        4.5054897166
  H         1.9995440455       22.5511086490        5.3812500817
  C         3.2286811550       21.7610534294        3.9710295844
  H         4.1070903515       22.3349939071        3.8268702757
  C         3.3879992445       20.6495708442        5.0396263949
  H         2.4526797778       20.3598284370        5.4727956652
  H         4.0440786920       21.0495816195        5.8690564908
  C         4.1436558739       19.4350501005        4.4692972717
  H         3.5752688855       19.0655297009        3.6653425528
  C         5.5533052662       19.6798725831        4.0073586819
  H         5.4170652294       20.2029476468        3.0276275901
  H         6.1017378643       20.3070711356        4.7592230823
  H         6.1446920429       18.7710426335        3.8960853615
  C         4.3070362749       18.4347320672        5.6576752579
  H         3.3941121002       17.9927970909        6.0075266348
  H         4.9098839640       17.5403363290        5.4404704522
  H         4.7328411668       18.8898206626        6.5288895703
  C         2.5880797477       21.2714638173        2.6499388665
  O         3.3252939487       21.2454047911        1.6511942094
  N         1.2748171773       20.9845696036        2.6295378917
  H         0.8039343711       21.1315483048        3.5535381496
  C         0.4455067850       20.6711796387        1.4618736707
  H         0.8914745469       19.6931097034        1.0699257771
  C        -1.0633051832       20.4345413820        1.8199184301
  H        -1.7388603710       20.6429052191        0.9253176480
  H        -1.4316750391       21.1377316429        2.5732481943
  C        -1.3410541721       18.9534726390        2.3529188535
  H        -0.6673968965       18.8895320434        3.1420725587
  C        -2.6847017265       18.9420071229        3.0611393433
  H        -2.5164478722       19.4023580556        4.0409773909
  H        -3.5570736034       19.5077945388        2.5895004341
  H        -2.9835135620       17.8981135651        3.1761994237
  C        -1.0933407636       17.8225363420        1.2715442360
  H        -0.9284520755       16.8552822002        1.8534114900
  H        -1.8319334777       17.7949620901        0.5067625782
  H        -0.0325833246       18.0007131439        0.8551058646
  C         0.6575732367       21.7432338389        0.4237395921
  O         0.9504521417       21.4667688249       -0.7579968355
  N         0.6259448097       22.9741778836        0.8066174643
  H         0.4859485335       23.1998852585        1.8037649212
  C         0.6030784317       24.0956832013       -0.1573139100
  H        -0.1154176620       23.8038856123       -0.9229244934
  C         0.1038030758       25.3926854601        0.5581691223
  H         0.5914523840       26.2488770888        0.1205035575
  H         0.3650047134       25.4860951171        1.5942711714
  C        -1.4228582301       25.5722288848        0.5140165642
  H        -1.8954667583       24.8305324241        1.1733442891